# Force       
# CofR        : (0.000000e+00 0.000000e+00 0.000000e+00)
#
# Time        	(total_x total_y total_z)	(pressure_x pressure_y pressure_z)	(viscous_x viscous_y viscous_z)
1.2e-05       	(7.077488e+04 1.762445e+03 -2.374196e+03)	(7.077491e+04 1.762441e+03 -2.374188e+03)	(-2.542468e-02 4.091510e-03 -8.123060e-03)
2.64002e-05   	(1.441543e+03 -5.841688e+01 -6.245771e+01)	(1.441571e+03 -5.842102e+01 -6.244951e+01)	(-2.811569e-02 4.140639e-03 -8.200483e-03)
4.36804e-05   	(7.099829e+02 4.894742e+00 -6.207776e-01)	(7.100137e+02 4.890628e+00 -6.126087e-01)	(-3.082509e-02 4.113460e-03 -8.168962e-03)
6.44165e-05   	(3.765675e+02 2.982131e+00 -1.582226e+00)	(3.765999e+02 2.978042e+00 -1.574100e+00)	(-3.237450e-02 4.088952e-03 -8.125984e-03)
8.92998e-05   	(2.635426e+02 2.653692e+00 -1.965797e+00)	(2.635762e+02 2.649627e+00 -1.957718e+00)	(-3.359022e-02 4.064737e-03 -8.079485e-03)
0.000119159   	(1.916731e+02 2.066881e+00 -1.210096e+00)	(1.917077e+02 2.062841e+00 -1.202070e+00)	(-3.455637e-02 4.039991e-03 -8.025783e-03)
0.000154991   	(1.466258e+02 1.589760e+00 -7.486873e-01)	(1.466611e+02 1.585745e+00 -7.407229e-01)	(-3.536002e-02 4.014828e-03 -7.964378e-03)
0.00019799    	(1.170352e+02 1.280611e+00 -7.797086e-01)	(1.170712e+02 1.276621e+00 -7.718138e-01)	(-3.604595e-02 3.989089e-03 -7.894769e-03)
0.000249587   	(9.699340e+01 1.016427e+00 -4.989585e-01)	(9.703004e+01 1.012465e+00 -4.911409e-01)	(-3.664294e-02 3.962694e-03 -7.817588e-03)
0.000311503   	(8.306468e+01 7.342424e-01 -5.047218e-01)	(8.310185e+01 7.303063e-01 -4.969903e-01)	(-3.717158e-02 3.936027e-03 -7.731444e-03)
0.000385801   	(7.321757e+01 5.877881e-01 -5.403628e-01)	(7.325521e+01 5.838792e-01 -5.327260e-01)	(-3.764818e-02 3.908930e-03 -7.636778e-03)
0.000474957   	(6.579675e+01 6.487943e-01 -4.041165e-01)	(6.583482e+01 6.449116e-01 -3.965858e-01)	(-3.807742e-02 3.882772e-03 -7.530683e-03)
0.000581938   	(5.995575e+01 6.956738e-01 -2.600437e-01)	(5.999422e+01 6.918131e-01 -2.526296e-01)	(-3.846546e-02 3.860750e-03 -7.414051e-03)
0.000710316   	(5.543696e+01 7.016369e-01 -2.322645e-01)	(5.547577e+01 6.977930e-01 -2.249782e-01)	(-3.881723e-02 3.843940e-03 -7.286360e-03)
0.00086436    	(5.188035e+01 7.596620e-01 -1.903552e-01)	(5.191949e+01 7.558300e-01 -1.832070e-01)	(-3.914093e-02 3.832064e-03 -7.148214e-03)
0.00104921    	(4.893742e+01 8.798390e-01 -1.041263e-01)	(4.897687e+01 8.760142e-01 -9.712532e-02)	(-3.944735e-02 3.824842e-03 -7.000957e-03)
0.00127106    	(4.627801e+01 8.741827e-01 -4.132388e-02)	(4.631776e+01 8.703574e-01 -3.447971e-02)	(-3.974550e-02 3.825306e-03 -6.844179e-03)
0.00153724    	(4.394709e+01 9.654273e-01 -2.579658e-02)	(4.398714e+01 9.615900e-01 -1.911621e-02)	(-4.004795e-02 3.837357e-03 -6.680375e-03)
0.00185665    	(4.165007e+01 1.062051e+00 -1.856990e-02)	(4.169045e+01 1.058187e+00 -1.205956e-02)	(-4.037781e-02 3.863298e-03 -6.510333e-03)
0.00223996    	(3.961931e+01 1.078164e+00 6.459062e-02)	(3.966006e+01 1.074258e+00 7.091976e-02)	(-4.074418e-02 3.906164e-03 -6.329141e-03)
0.002689      	(3.812522e+01 1.209086e+00 1.209562e-01)	(3.816640e+01 1.205121e+00 1.270965e-01)	(-4.117639e-02 3.965324e-03 -6.140242e-03)
0.00320387    	(3.655939e+01 1.278284e+00 1.872088e-01)	(3.660108e+01 1.274245e+00 1.931505e-01)	(-4.168772e-02 4.038398e-03 -5.941751e-03)
0.00378475    	(3.517952e+01 1.297703e+00 2.067223e-01)	(3.522179e+01 1.293579e+00 2.124553e-01)	(-4.227104e-02 4.123262e-03 -5.732990e-03)
0.00443207    	(3.410403e+01 1.383293e+00 1.814100e-01)	(3.414693e+01 1.379076e+00 1.869257e-01)	(-4.289986e-02 4.217300e-03 -5.515701e-03)
0.00509534    	(3.323751e+01 1.494956e+00 1.857285e-01)	(3.328111e+01 1.490641e+00 1.910312e-01)	(-4.360158e-02 4.315687e-03 -5.302693e-03)
0.00575905    	(3.207592e+01 1.465718e+00 3.286037e-01)	(3.212022e+01 1.461307e+00 3.337029e-01)	(-4.430172e-02 4.411307e-03 -5.099222e-03)
0.0064232     	(3.142125e+01 1.497363e+00 4.155350e-01)	(3.146621e+01 1.492860e+00 4.204380e-01)	(-4.496206e-02 4.502655e-03 -4.903058e-03)
0.0070878     	(3.097342e+01 1.458456e+00 4.358233e-01)	(3.101899e+01 1.453866e+00 4.405362e-01)	(-4.556338e-02 4.590099e-03 -4.712920e-03)
0.00775329    	(3.029948e+01 1.534179e+00 4.913777e-01)	(3.034560e+01 1.529506e+00 4.959054e-01)	(-4.611497e-02 4.673472e-03 -4.527642e-03)
0.00841968    	(2.983214e+01 1.495916e+00 4.974376e-01)	(2.987875e+01 1.491163e+00 5.017849e-01)	(-4.661374e-02 4.752576e-03 -4.347383e-03)
0.00908696    	(2.925499e+01 1.419281e+00 4.831244e-01)	(2.930206e+01 1.414455e+00 4.872968e-01)	(-4.706521e-02 4.826406e-03 -4.172369e-03)
0.00975604    	(2.946542e+01 1.626273e+00 5.086651e-01)	(2.951289e+01 1.621376e+00 5.126671e-01)	(-4.747009e-02 4.897303e-03 -4.001927e-03)
0.0104265     	(2.914543e+01 1.550675e+00 5.157736e-01)	(2.919328e+01 1.545711e+00 5.196100e-01)	(-4.784093e-02 4.963275e-03 -3.836410e-03)
0.0110988     	(2.863845e+01 1.540551e+00 7.073241e-01)	(2.868663e+01 1.535525e+00 7.109987e-01)	(-4.818306e-02 5.026136e-03 -3.674528e-03)
0.0117728     	(2.853588e+01 1.495225e+00 7.117090e-01)	(2.858438e+01 1.490141e+00 7.152261e-01)	(-4.850192e-02 5.084130e-03 -3.517039e-03)
0.0124488     	(2.875975e+01 1.525966e+00 6.291773e-01)	(2.880855e+01 1.520828e+00 6.325408e-01)	(-4.880151e-02 5.138468e-03 -3.363496e-03)
0.0131266     	(2.887673e+01 1.431854e+00 7.464474e-01)	(2.892582e+01 1.426664e+00 7.496589e-01)	(-4.909089e-02 5.190027e-03 -3.211534e-03)
0.0138063     	(2.849141e+01 1.508071e+00 7.824130e-01)	(2.854079e+01 1.502831e+00 7.854745e-01)	(-4.937989e-02 5.239840e-03 -3.061502e-03)
0.0144878     	(2.853585e+01 1.424854e+00 8.466394e-01)	(2.858552e+01 1.419568e+00 8.495522e-01)	(-4.967059e-02 5.286061e-03 -2.912795e-03)
0.0151708     	(2.868071e+01 1.531325e+00 7.713041e-01)	(2.873068e+01 1.525995e+00 7.740698e-01)	(-4.996416e-02 5.330218e-03 -2.765699e-03)
0.0158556     	(2.860834e+01 1.485303e+00 8.612325e-01)	(2.865860e+01 1.479932e+00 8.638525e-01)	(-5.026313e-02 5.370426e-03 -2.619953e-03)
0.0165414     	(2.864604e+01 1.461497e+00 9.682626e-01)	(2.869661e+01 1.456090e+00 9.707364e-01)	(-5.056864e-02 5.407281e-03 -2.473795e-03)
0.0172287     	(2.894607e+01 1.451227e+00 9.693722e-01)	(2.899695e+01 1.445786e+00 9.717006e-01)	(-5.087585e-02 5.440674e-03 -2.328461e-03)
0.0179169     	(2.893824e+01 1.430724e+00 9.992752e-01)	(2.898943e+01 1.425254e+00 1.001459e+00)	(-5.119067e-02 5.470630e-03 -2.184159e-03)
0.0186061     	(2.889032e+01 1.376156e+00 9.927589e-01)	(2.894183e+01 1.370661e+00 9.947998e-01)	(-5.151110e-02 5.495394e-03 -2.040903e-03)
0.0192957     	(2.888472e+01 1.353049e+00 1.037418e+00)	(2.893655e+01 1.347532e+00 1.039316e+00)	(-5.183548e-02 5.516477e-03 -1.898178e-03)
0.0199859     	(2.884187e+01 1.420146e+00 1.068416e+00)	(2.889404e+01 1.414612e+00 1.070173e+00)	(-5.216266e-02 5.534263e-03 -1.756983e-03)
0.0206765     	(2.907048e+01 1.365916e+00 1.155305e+00)	(2.912297e+01 1.360368e+00 1.156922e+00)	(-5.249116e-02 5.547856e-03 -1.616443e-03)
0.0213677     	(2.901141e+01 1.275184e+00 1.230905e+00)	(2.906423e+01 1.269627e+00 1.232382e+00)	(-5.282164e-02 5.557248e-03 -1.476906e-03)
0.0220588     	(2.914589e+01 1.341532e+00 1.138784e+00)	(2.919904e+01 1.335968e+00 1.140124e+00)	(-5.315187e-02 5.564420e-03 -1.339353e-03)
0.0227499     	(2.932750e+01 1.368896e+00 1.135829e+00)	(2.938098e+01 1.363327e+00 1.137033e+00)	(-5.347961e-02 5.568852e-03 -1.203339e-03)
0.0234386     	(2.927276e+01 1.251374e+00 1.347671e+00)	(2.932657e+01 1.245805e+00 1.348738e+00)	(-5.381139e-02 5.568623e-03 -1.067157e-03)
0.0241244     	(2.920296e+01 1.220435e+00 1.253496e+00)	(2.925710e+01 1.214870e+00 1.254430e+00)	(-5.414295e-02 5.565553e-03 -9.338784e-04)
0.0248073     	(2.923773e+01 1.190075e+00 1.349011e+00)	(2.929221e+01 1.184516e+00 1.349813e+00)	(-5.447346e-02 5.559198e-03 -8.023715e-04)
0.0254873     	(2.906319e+01 1.214475e+00 1.312706e+00)	(2.911800e+01 1.208924e+00 1.313380e+00)	(-5.480437e-02 5.550549e-03 -6.737854e-04)
0.0261646     	(2.956821e+01 1.274244e+00 1.398236e+00)	(2.962334e+01 1.268705e+00 1.398784e+00)	(-5.513004e-02 5.539845e-03 -5.471690e-04)
0.0268394     	(2.915924e+01 1.117988e+00 1.370423e+00)	(2.921470e+01 1.112463e+00 1.370846e+00)	(-5.545627e-02 5.525452e-03 -4.231418e-04)
0.027512      	(2.958085e+01 1.158301e+00 1.416583e+00)	(2.963663e+01 1.152792e+00 1.416884e+00)	(-5.577693e-02 5.508594e-03 -3.009675e-04)
0.0281817     	(2.966124e+01 1.031576e+00 1.392054e+00)	(2.971733e+01 1.026088e+00 1.392235e+00)	(-5.609610e-02 5.488173e-03 -1.809735e-04)
0.0288496     	(2.940692e+01 1.077719e+00 1.454325e+00)	(2.946334e+01 1.072253e+00 1.454388e+00)	(-5.641385e-02 5.466310e-03 -6.311171e-05)
0.0295153     	(2.931609e+01 1.038126e+00 1.522315e+00)	(2.937282e+01 1.032684e+00 1.522262e+00)	(-5.673117e-02 5.442483e-03 5.307645e-05)
0.0301791     	(2.911055e+01 1.037731e+00 1.451932e+00)	(2.916759e+01 1.032314e+00 1.451766e+00)	(-5.704718e-02 5.416913e-03 1.663584e-04)
0.0308406     	(2.963515e+01 9.739230e-01 1.562045e+00)	(2.969251e+01 9.685345e-01 1.561767e+00)	(-5.735850e-02 5.388548e-03 2.780623e-04)
0.0315008     	(2.950160e+01 8.775715e-01 1.614766e+00)	(2.955927e+01 8.722141e-01 1.614378e+00)	(-5.766731e-02 5.357484e-03 3.882730e-04)
0.0321592     	(2.938833e+01 8.780508e-01 1.637710e+00)	(2.944631e+01 8.727260e-01 1.637213e+00)	(-5.797557e-02 5.324766e-03 4.967609e-04)
0.0328163     	(2.958449e+01 8.830847e-01 1.512414e+00)	(2.964277e+01 8.777944e-01 1.511812e+00)	(-5.827891e-02 5.290265e-03 6.020566e-04)
0.033472      	(2.961388e+01 9.076861e-01 1.553089e+00)	(2.967246e+01 9.024321e-01 1.552383e+00)	(-5.857926e-02 5.253987e-03 7.057020e-04)
0.0341264     	(2.935948e+01 7.536551e-01 1.705519e+00)	(2.941836e+01 7.484403e-01 1.704710e+00)	(-5.887875e-02 5.214846e-03 8.087483e-04)
0.0347794     	(2.906365e+01 7.182228e-01 1.648896e+00)	(2.912283e+01 7.130490e-01 1.647986e+00)	(-5.917737e-02 5.173784e-03 9.097999e-04)
0.0354316     	(2.963149e+01 7.763442e-01 1.713375e+00)	(2.969096e+01 7.712126e-01 1.712365e+00)	(-5.946945e-02 5.131580e-03 1.009398e-03)
0.0360829     	(2.959934e+01 6.851456e-01 1.731155e+00)	(2.965910e+01 6.800583e-01 1.730048e+00)	(-5.975915e-02 5.087336e-03 1.107225e-03)
0.0367333     	(2.944491e+01 5.626923e-01 1.802338e+00)	(2.950495e+01 5.576514e-01 1.801134e+00)	(-6.004753e-02 5.040906e-03 1.203649e-03)
0.0373828     	(2.917364e+01 6.308804e-01 1.692438e+00)	(2.923398e+01 6.258868e-01 1.691141e+00)	(-6.033465e-02 4.993611e-03 1.297125e-03)
0.0380315     	(2.930544e+01 6.354426e-01 1.713440e+00)	(2.936606e+01 6.304976e-01 1.712051e+00)	(-6.061741e-02 4.945016e-03 1.388923e-03)
0.0386797     	(2.933249e+01 6.067241e-01 1.738246e+00)	(2.939339e+01 6.018294e-01 1.736767e+00)	(-6.089611e-02 4.894724e-03 1.478875e-03)
0.0393275     	(2.924544e+01 4.744015e-01 1.838555e+00)	(2.930661e+01 4.695593e-01 1.836988e+00)	(-6.117313e-02 4.842207e-03 1.567547e-03)
0.0399749     	(2.935581e+01 3.517396e-01 1.839192e+00)	(2.941726e+01 3.469524e-01 1.837537e+00)	(-6.144703e-02 4.787200e-03 1.654273e-03)
0.0406218     	(2.918276e+01 4.261902e-01 1.807945e+00)	(2.924448e+01 4.214589e-01 1.806206e+00)	(-6.172018e-02 4.731316e-03 1.739040e-03)
0.0412683     	(2.937342e+01 3.702267e-01 1.758748e+00)	(2.943541e+01 3.655531e-01 1.756927e+00)	(-6.198895e-02 4.673620e-03 1.821467e-03)
0.0419148     	(2.920631e+01 3.307693e-01 1.899262e+00)	(2.926856e+01 3.261548e-01 1.897359e+00)	(-6.225620e-02 4.614559e-03 1.903322e-03)
0.0425608     	(2.912556e+01 2.635607e-01 1.863845e+00)	(2.918808e+01 2.590073e-01 1.861862e+00)	(-6.252288e-02 4.553433e-03 1.983325e-03)
0.0432068     	(2.901206e+01 2.290648e-01 1.918630e+00)	(2.907484e+01 2.245736e-01 1.916568e+00)	(-6.278781e-02 4.491173e-03 2.061975e-03)
0.0438525     	(2.909358e+01 2.772895e-01 1.928444e+00)	(2.915663e+01 2.728611e-01 1.926305e+00)	(-6.305079e-02 4.428379e-03 2.138928e-03)
0.0444981     	(2.889725e+01 1.825306e-01 1.758741e+00)	(2.896056e+01 1.781664e-01 1.756528e+00)	(-6.331216e-02 4.364174e-03 2.212656e-03)
0.0451437     	(2.905210e+01 7.239228e-02 1.780410e+00)	(2.911567e+01 6.809429e-02 1.778125e+00)	(-6.357080e-02 4.297988e-03 2.284782e-03)
0.0457893     	(2.882881e+01 6.366037e-02 1.877639e+00)	(2.889264e+01 5.942953e-02 1.875283e+00)	(-6.382869e-02 4.230840e-03 2.356213e-03)
0.0464349     	(2.917536e+01 -1.135723e-01 1.916063e+00)	(2.923945e+01 -1.177338e-01 1.913636e+00)	(-6.408235e-02 4.161503e-03 2.426362e-03)
0.0470805     	(2.923959e+01 -1.036195e-01 1.974263e+00)	(2.930393e+01 -1.077109e-01 1.971767e+00)	(-6.433328e-02 4.091399e-03 2.495251e-03)
0.0477261     	(2.886195e+01 3.628998e-02 1.855329e+00)	(2.892653e+01 3.226812e-02 1.852768e+00)	(-6.458450e-02 4.021856e-03 2.561291e-03)
0.0483717     	(2.850694e+01 -2.366387e-02 1.867380e+00)	(2.857177e+01 -2.761482e-02 1.864754e+00)	(-6.483676e-02 3.950946e-03 2.625734e-03)
0.0490173     	(2.859802e+01 -1.377448e-01 1.896711e+00)	(2.866310e+01 -1.416231e-01 1.894022e+00)	(-6.508658e-02 3.878276e-03 2.688763e-03)
0.0496629     	(2.869826e+01 -2.134636e-01 1.852914e+00)	(2.876359e+01 -2.172678e-01 1.850165e+00)	(-6.533380e-02 3.804260e-03 2.749307e-03)
0.0503086     	(2.897139e+01 -2.619872e-01 1.885564e+00)	(2.903696e+01 -2.657163e-01 1.882756e+00)	(-6.557685e-02 3.729100e-03 2.808278e-03)
0.0509542     	(2.865442e+01 -2.859288e-01 1.823825e+00)	(2.872024e+01 -2.895820e-01 1.820960e+00)	(-6.581973e-02 3.653256e-03 2.865130e-03)
0.0515998     	(2.841321e+01 -2.880566e-01 1.903890e+00)	(2.847927e+01 -2.916338e-01 1.900969e+00)	(-6.606287e-02 3.577197e-03 2.920920e-03)
0.0522458     	(2.863051e+01 -3.708675e-01 1.836077e+00)	(2.869681e+01 -3.743676e-01 1.833102e+00)	(-6.630230e-02 3.500148e-03 2.974408e-03)
0.0528919     	(2.874003e+01 -3.992590e-01 1.949303e+00)	(2.880657e+01 -4.026815e-01 1.946275e+00)	(-6.653973e-02 3.422489e-03 3.027255e-03)
0.0535379     	(2.835254e+01 -4.619738e-01 1.852226e+00)	(2.841932e+01 -4.653181e-01 1.849148e+00)	(-6.677794e-02 3.344308e-03 3.077835e-03)
0.054184      	(2.844073e+01 -5.429887e-01 1.900697e+00)	(2.850774e+01 -5.462539e-01 1.897570e+00)	(-6.701422e-02 3.265156e-03 3.127081e-03)
0.05483       	(2.833141e+01 -4.542397e-01 1.773940e+00)	(2.839866e+01 -4.574262e-01 1.770766e+00)	(-6.724948e-02 3.186573e-03 3.173314e-03)
0.0554761     	(2.846683e+01 -6.559281e-01 1.839491e+00)	(2.853431e+01 -6.590343e-01 1.836273e+00)	(-6.748150e-02 3.106242e-03 3.218452e-03)
0.0561217     	(2.842909e+01 -7.183893e-01 1.827343e+00)	(2.849681e+01 -7.214147e-01 1.824082e+00)	(-6.771305e-02 3.025394e-03 3.261883e-03)
0.0567673     	(2.825863e+01 -7.845354e-01 1.778552e+00)	(2.832657e+01 -7.874795e-01 1.775249e+00)	(-6.794385e-02 2.944102e-03 3.303392e-03)
0.0574129     	(2.832415e+01 -6.881977e-01 1.804595e+00)	(2.839233e+01 -6.910611e-01 1.801251e+00)	(-6.817313e-02 2.863393e-03 3.343502e-03)
0.0580585     	(2.831002e+01 -6.935454e-01 1.821600e+00)	(2.837842e+01 -6.963280e-01 1.818218e+00)	(-6.840029e-02 2.782627e-03 3.382257e-03)
0.0587037     	(2.810799e+01 -8.464898e-01 1.625556e+00)	(2.817662e+01 -8.491903e-01 1.622138e+00)	(-6.862753e-02 2.700448e-03 3.417904e-03)
0.0593488     	(2.812553e+01 -8.504758e-01 1.718167e+00)	(2.819439e+01 -8.530941e-01 1.714714e+00)	(-6.885282e-02 2.618306e-03 3.452853e-03)
0.0599936     	(2.824467e+01 -9.458274e-01 1.716916e+00)	(2.831375e+01 -9.483628e-01 1.713429e+00)	(-6.907682e-02 2.535409e-03 3.486465e-03)
0.0606383     	(2.804825e+01 -9.744490e-01 1.685832e+00)	(2.811755e+01 -9.769013e-01 1.682313e+00)	(-6.929965e-02 2.452263e-03 3.518471e-03)
0.0612826     	(2.806696e+01 -1.021833e+00 1.676121e+00)	(2.813648e+01 -1.024202e+00 1.672573e+00)	(-6.952157e-02 2.368647e-03 3.548856e-03)
0.0619264     	(2.790048e+01 -9.897016e-01 1.564553e+00)	(2.797022e+01 -9.919871e-01 1.560976e+00)	(-6.974288e-02 2.285489e-03 3.576775e-03)
0.0625702     	(2.784817e+01 -1.004154e+00 1.601631e+00)	(2.791814e+01 -1.006356e+00 1.598027e+00)	(-6.996223e-02 2.202383e-03 3.603551e-03)
0.0632136     	(2.815153e+01 -1.235902e+00 1.587202e+00)	(2.822171e+01 -1.238019e+00 1.583573e+00)	(-7.017878e-02 2.117374e-03 3.629036e-03)
0.0638566     	(2.794574e+01 -1.308947e+00 1.518101e+00)	(2.801614e+01 -1.310979e+00 1.514448e+00)	(-7.039474e-02 2.032006e-03 3.652748e-03)
0.0644991     	(2.779203e+01 -1.182262e+00 1.498925e+00)	(2.786264e+01 -1.184210e+00 1.495250e+00)	(-7.060938e-02 1.947961e-03 3.674924e-03)
0.0651416     	(2.758634e+01 -1.044429e+00 1.532807e+00)	(2.765716e+01 -1.046295e+00 1.529111e+00)	(-7.082305e-02 1.865346e-03 3.696025e-03)
0.0657837     	(2.768030e+01 -1.193493e+00 1.483728e+00)	(2.775134e+01 -1.195275e+00 1.480013e+00)	(-7.103517e-02 1.781779e-03 3.715208e-03)
0.0664253     	(2.782420e+01 -1.409856e+00 1.491389e+00)	(2.789544e+01 -1.411553e+00 1.487656e+00)	(-7.124416e-02 1.696621e-03 3.732844e-03)
0.0670665     	(2.773449e+01 -1.292948e+00 1.426140e+00)	(2.780594e+01 -1.294560e+00 1.422391e+00)	(-7.145140e-02 1.612490e-03 3.748583e-03)
0.0677073     	(2.769115e+01 -1.289860e+00 1.404231e+00)	(2.776281e+01 -1.291389e+00 1.400469e+00)	(-7.165629e-02 1.528734e-03 3.762728e-03)
0.0683476     	(2.760100e+01 -1.370222e+00 1.299897e+00)	(2.767286e+01 -1.371666e+00 1.296122e+00)	(-7.185928e-02 1.444598e-03 3.774660e-03)
0.0689879     	(2.751050e+01 -1.503544e+00 1.295085e+00)	(2.758256e+01 -1.504904e+00 1.291300e+00)	(-7.205994e-02 1.359853e-03 3.785055e-03)
0.0696278     	(2.748545e+01 -1.536826e+00 1.148940e+00)	(2.755771e+01 -1.538101e+00 1.145147e+00)	(-7.225880e-02 1.275142e-03 3.792796e-03)
0.0702672     	(2.722420e+01 -1.380803e+00 1.292506e+00)	(2.729665e+01 -1.381995e+00 1.288706e+00)	(-7.245702e-02 1.192265e-03 3.800440e-03)
0.0709066     	(2.727595e+01 -1.486349e+00 1.250170e+00)	(2.734860e+01 -1.487458e+00 1.246364e+00)	(-7.265259e-02 1.109284e-03 3.806215e-03)
0.0715456     	(2.758728e+01 -1.574151e+00 1.217148e+00)	(2.766012e+01 -1.575177e+00 1.213337e+00)	(-7.284417e-02 1.025765e-03 3.810277e-03)
0.0721846     	(2.734530e+01 -1.538235e+00 1.132630e+00)	(2.741834e+01 -1.539178e+00 1.128817e+00)	(-7.303413e-02 9.428009e-04 3.812578e-03)
0.0728236     	(2.728674e+01 -1.613516e+00 1.119957e+00)	(2.735996e+01 -1.614376e+00 1.116144e+00)	(-7.322221e-02 8.598903e-04 3.813611e-03)
0.0734626     	(2.708298e+01 -1.590101e+00 1.046863e+00)	(2.715639e+01 -1.590878e+00 1.043050e+00)	(-7.340882e-02 7.775904e-04 3.812948e-03)
0.0741011     	(2.743169e+01 -1.739062e+00 1.030382e+00)	(2.750528e+01 -1.739756e+00 1.026572e+00)	(-7.359141e-02 6.946422e-04 3.810566e-03)
0.0747397     	(2.690494e+01 -1.687858e+00 9.506296e-01)	(2.697871e+01 -1.688471e+00 9.468231e-01)	(-7.377415e-02 6.125689e-04 3.806524e-03)
0.0753782     	(2.682886e+01 -1.659393e+00 9.995572e-01)	(2.690281e+01 -1.659924e+00 9.957557e-01)	(-7.395484e-02 5.312597e-04 3.801446e-03)
0.0760172     	(2.691407e+01 -1.637893e+00 8.924156e-01)	(2.698820e+01 -1.638344e+00 8.886215e-01)	(-7.413170e-02 4.508476e-04 3.794120e-03)
0.0766562     	(2.717863e+01 -1.682771e+00 7.758943e-01)	(2.725294e+01 -1.683142e+00 7.721099e-01)	(-7.430479e-02 3.705502e-04 3.784316e-03)
0.0772952     	(2.676262e+01 -1.724508e+00 8.583564e-01)	(2.683709e+01 -1.724799e+00 8.545821e-01)	(-7.447756e-02 2.904844e-04 3.774277e-03)
0.0779346     	(2.680921e+01 -1.798426e+00 7.693694e-01)	(2.688386e+01 -1.798637e+00 7.656069e-01)	(-7.464731e-02 2.104525e-04 3.762501e-03)
0.0785741     	(2.700942e+01 -1.804107e+00 8.503164e-01)	(2.708424e+01 -1.804238e+00 8.465663e-01)	(-7.481335e-02 1.309109e-04 3.750035e-03)
0.079214      	(2.681480e+01 -1.747926e+00 7.377565e-01)	(2.688978e+01 -1.747978e+00 7.340210e-01)	(-7.497695e-02 5.219301e-05 3.735430e-03)
0.0798538     	(2.657447e+01 -1.773633e+00 6.575714e-01)	(2.664961e+01 -1.773607e+00 6.538524e-01)	(-7.514012e-02 -2.576291e-05 3.719009e-03)
0.0804942     	(2.638250e+01 -1.784161e+00 6.309765e-01)	(2.645780e+01 -1.784057e+00 6.272754e-01)	(-7.530120e-02 -1.032129e-04 3.701043e-03)
0.0811349     	(2.682366e+01 -1.904058e+00 5.814616e-01)	(2.689912e+01 -1.903877e+00 5.777803e-01)	(-7.545670e-02 -1.811329e-04 3.681301e-03)
0.0817762     	(2.673197e+01 -1.991097e+00 4.440013e-01)	(2.680758e+01 -1.990837e+00 4.403420e-01)	(-7.560931e-02 -2.593321e-04 3.659294e-03)
0.0824178     	(2.640856e+01 -1.900787e+00 4.674433e-01)	(2.648432e+01 -1.900451e+00 4.638071e-01)	(-7.576136e-02 -3.361450e-04 3.636247e-03)
0.0830599     	(2.644635e+01 -1.784188e+00 4.855704e-01)	(2.652226e+01 -1.783777e+00 4.819581e-01)	(-7.591052e-02 -4.109858e-04 3.612319e-03)
0.0837025     	(2.620186e+01 -1.868027e+00 3.875148e-01)	(2.627792e+01 -1.867541e+00 3.839284e-01)	(-7.605769e-02 -4.859989e-04 3.586406e-03)
0.0843455     	(2.608940e+01 -1.850367e+00 3.978151e-01)	(2.616560e+01 -1.849806e+00 3.942555e-01)	(-7.620249e-02 -5.603807e-04 3.559623e-03)
0.084989      	(2.648765e+01 -1.953551e+00 3.346657e-01)	(2.656400e+01 -1.952917e+00 3.311348e-01)	(-7.634212e-02 -6.345320e-04 3.530946e-03)
0.0856329     	(2.613366e+01 -1.864221e+00 3.785390e-01)	(2.621014e+01 -1.863514e+00 3.750375e-01)	(-7.648039e-02 -7.072642e-04 3.501508e-03)
0.0862777     	(2.609145e+01 -1.963266e+00 1.828246e-01)	(2.616806e+01 -1.962486e+00 1.793551e-01)	(-7.661557e-02 -7.798679e-04 3.469506e-03)
0.086923      	(2.620354e+01 -1.903429e+00 2.583432e-01)	(2.628029e+01 -1.902578e+00 2.549063e-01)	(-7.674687e-02 -8.508762e-04 3.436945e-03)
0.0875688     	(2.614819e+01 -2.058530e+00 9.948985e-02)	(2.622507e+01 -2.057608e+00 9.608788e-02)	(-7.687594e-02 -9.223214e-04 3.401975e-03)
0.088215      	(2.612392e+01 -1.958123e+00 1.008967e-01)	(2.620093e+01 -1.957131e+00 9.753086e-02)	(-7.700214e-02 -9.921792e-04 3.365835e-03)
0.0888621     	(2.579923e+01 -1.961827e+00 1.140125e-01)	(2.587636e+01 -1.960766e+00 1.106835e-01)	(-7.712677e-02 -1.060703e-03 3.329048e-03)
0.0895096     	(2.569385e+01 -1.943493e+00 4.082329e-02)	(2.577110e+01 -1.942365e+00 3.753239e-02)	(-7.724959e-02 -1.128401e-03 3.290899e-03)
0.0901577     	(2.599767e+01 -1.954243e+00 -1.313690e-01)	(2.607503e+01 -1.953048e+00 -1.346190e-01)	(-7.736767e-02 -1.195103e-03 3.250033e-03)
0.0908066     	(2.539092e+01 -1.833352e+00 -1.515703e-01)	(2.546840e+01 -1.832093e+00 -1.547784e-01)	(-7.748533e-02 -1.259792e-03 3.208126e-03)
0.0914561     	(2.558923e+01 -1.979049e+00 -9.075827e-02)	(2.566683e+01 -1.977724e+00 -9.392416e-02)	(-7.760002e-02 -1.324451e-03 3.165884e-03)
0.092106      	(2.580606e+01 -1.962047e+00 3.722140e-03)	(2.588377e+01 -1.960659e+00 5.986940e-04)	(-7.770977e-02 -1.387954e-03 3.123446e-03)
0.0927568     	(2.572040e+01 -2.126528e+00 -2.075368e-01)	(2.579822e+01 -2.125076e+00 -2.106153e-01)	(-7.781628e-02 -1.452051e-03 3.078502e-03)
0.0934081     	(2.559836e+01 -1.865285e+00 -3.045494e-01)	(2.567628e+01 -1.863772e+00 -3.075812e-01)	(-7.792158e-02 -1.513109e-03 3.031783e-03)
0.0940598     	(2.534729e+01 -1.887401e+00 -2.353590e-01)	(2.542531e+01 -1.885828e+00 -2.383448e-01)	(-7.802598e-02 -1.572560e-03 2.985783e-03)
0.0947125     	(2.535058e+01 -1.999999e+00 -2.830914e-01)	(2.542871e+01 -1.998367e+00 -2.860304e-01)	(-7.812670e-02 -1.632176e-03 2.938946e-03)
0.0953657     	(2.567245e+01 -1.955400e+00 -4.534669e-01)	(2.575068e+01 -1.953709e+00 -4.563564e-01)	(-7.822366e-02 -1.690957e-03 2.889467e-03)
0.0960193     	(2.512081e+01 -1.798557e+00 -4.885423e-01)	(2.519913e+01 -1.796809e+00 -4.913809e-01)	(-7.832106e-02 -1.747688e-03 2.838628e-03)
0.0966739     	(2.485647e+01 -1.856806e+00 -4.426493e-01)	(2.493488e+01 -1.855003e+00 -4.454372e-01)	(-7.841725e-02 -1.803443e-03 2.787825e-03)
0.097329      	(2.528563e+01 -1.975447e+00 -3.398421e-01)	(2.536414e+01 -1.973589e+00 -3.425799e-01)	(-7.850915e-02 -1.857887e-03 2.737821e-03)
0.0979845     	(2.518120e+01 -1.970438e+00 -6.440625e-01)	(2.525980e+01 -1.968526e+00 -6.467469e-01)	(-7.859895e-02 -1.911697e-03 2.684436e-03)
0.0986405     	(2.515920e+01 -1.849549e+00 -6.488003e-01)	(2.523788e+01 -1.847585e+00 -6.514308e-01)	(-7.868633e-02 -1.963780e-03 2.630470e-03)
0.0992975     	(2.487894e+01 -1.880857e+00 -5.401208e-01)	(2.495771e+01 -1.878844e+00 -5.426978e-01)	(-7.877292e-02 -2.012920e-03 2.576977e-03)
0.0999549     	(2.504896e+01 -1.947390e+00 -6.897778e-01)	(2.512781e+01 -1.945328e+00 -6.922998e-01)	(-7.885719e-02 -2.061304e-03 2.521919e-03)
0.100613      	(2.506847e+01 -1.786522e+00 -7.165696e-01)	(2.514741e+01 -1.784415e+00 -7.190358e-01)	(-7.893894e-02 -2.107263e-03 2.466208e-03)
0.101271      	(2.453968e+01 -1.823752e+00 -8.870187e-01)	(2.461870e+01 -1.821600e+00 -8.894274e-01)	(-7.902194e-02 -2.152103e-03 2.408725e-03)
0.10193       	(2.479879e+01 -1.858852e+00 -8.350359e-01)	(2.487789e+01 -1.856658e+00 -8.373877e-01)	(-7.910193e-02 -2.194707e-03 2.351832e-03)
0.10259       	(2.484948e+01 -1.841142e+00 -8.414085e-01)	(2.492866e+01 -1.838906e+00 -8.437034e-01)	(-7.917986e-02 -2.235643e-03 2.294897e-03)
0.10325       	(2.469507e+01 -1.801290e+00 -9.052859e-01)	(2.477432e+01 -1.799015e+00 -9.075232e-01)	(-7.925615e-02 -2.274451e-03 2.237273e-03)
0.103911      	(2.446809e+01 -1.739481e+00 -9.559889e-01)	(2.454742e+01 -1.737170e+00 -9.581684e-01)	(-7.933304e-02 -2.311915e-03 2.179578e-03)
0.104572      	(2.460785e+01 -1.770494e+00 -9.499330e-01)	(2.468725e+01 -1.768145e+00 -9.520557e-01)	(-7.940794e-02 -2.348180e-03 2.122705e-03)
0.105234      	(2.451239e+01 -1.768959e+00 -9.585749e-01)	(2.459187e+01 -1.766576e+00 -9.606406e-01)	(-7.948217e-02 -2.383097e-03 2.065692e-03)
0.105896      	(2.436078e+01 -1.673158e+00 -1.026297e+00)	(2.444034e+01 -1.670742e+00 -1.028305e+00)	(-7.955589e-02 -2.415601e-03 2.008279e-03)
0.106559      	(2.444343e+01 -1.743790e+00 -1.165512e+00)	(2.452305e+01 -1.741343e+00 -1.167462e+00)	(-7.962779e-02 -2.446939e-03 1.949701e-03)
0.107222      	(2.447126e+01 -1.641788e+00 -1.181138e+00)	(2.455095e+01 -1.639313e+00 -1.183029e+00)	(-7.969895e-02 -2.474726e-03 1.891219e-03)
0.107886      	(2.445509e+01 -1.582729e+00 -1.167679e+00)	(2.453485e+01 -1.580229e+00 -1.169513e+00)	(-7.976899e-02 -2.499958e-03 1.833922e-03)
0.10855       	(2.401879e+01 -1.599528e+00 -1.210465e+00)	(2.409863e+01 -1.597005e+00 -1.212241e+00)	(-7.984168e-02 -2.522721e-03 1.776604e-03)
0.109214      	(2.441537e+01 -1.593132e+00 -1.344767e+00)	(2.449528e+01 -1.590590e+00 -1.346486e+00)	(-7.991092e-02 -2.542116e-03 1.719246e-03)
0.109879      	(2.375371e+01 -1.547639e+00 -1.204602e+00)	(2.383370e+01 -1.545080e+00 -1.206267e+00)	(-7.998312e-02 -2.559732e-03 1.664717e-03)
0.110544      	(2.398161e+01 -1.553582e+00 -1.281530e+00)	(2.406166e+01 -1.551006e+00 -1.283141e+00)	(-8.005419e-02 -2.576436e-03 1.610265e-03)
0.11121       	(2.410440e+01 -1.540635e+00 -1.274875e+00)	(2.418453e+01 -1.538044e+00 -1.276430e+00)	(-8.012381e-02 -2.590289e-03 1.555292e-03)
0.111876      	(2.400817e+01 -1.511164e+00 -1.567554e+00)	(2.408837e+01 -1.508561e+00 -1.569052e+00)	(-8.019495e-02 -2.602560e-03 1.498041e-03)
0.112542      	(2.406492e+01 -1.456851e+00 -1.279075e+00)	(2.414518e+01 -1.454238e+00 -1.280519e+00)	(-8.026466e-02 -2.612739e-03 1.443265e-03)
0.113209      	(2.398365e+01 -1.372718e+00 -1.434068e+00)	(2.406398e+01 -1.370097e+00 -1.435454e+00)	(-8.033532e-02 -2.621032e-03 1.386118e-03)
0.113875      	(2.368486e+01 -1.386275e+00 -1.575803e+00)	(2.376527e+01 -1.383647e+00 -1.577131e+00)	(-8.040854e-02 -2.628102e-03 1.327461e-03)
0.114543      	(2.387375e+01 -1.382447e+00 -1.626355e+00)	(2.395423e+01 -1.379814e+00 -1.627625e+00)	(-8.048002e-02 -2.633148e-03 1.269395e-03)
0.11521       	(2.351382e+01 -1.282763e+00 -1.571459e+00)	(2.359437e+01 -1.280127e+00 -1.572670e+00)	(-8.055371e-02 -2.635855e-03 1.211842e-03)
0.115878      	(2.346183e+01 -1.321809e+00 -1.541543e+00)	(2.354245e+01 -1.319174e+00 -1.542700e+00)	(-8.062920e-02 -2.634702e-03 1.156227e-03)
0.116546      	(2.366205e+01 -1.344727e+00 -1.650821e+00)	(2.374275e+01 -1.342096e+00 -1.651922e+00)	(-8.070361e-02 -2.631145e-03 1.100685e-03)
0.117215      	(2.387705e+01 -1.217401e+00 -1.692512e+00)	(2.395783e+01 -1.214777e+00 -1.693555e+00)	(-8.077636e-02 -2.623418e-03 1.042717e-03)
0.117884      	(2.352989e+01 -1.143713e+00 -1.674740e+00)	(2.361074e+01 -1.141100e+00 -1.675726e+00)	(-8.085154e-02 -2.612784e-03 9.857493e-04)
0.118554      	(2.341155e+01 -1.088114e+00 -1.723160e+00)	(2.349248e+01 -1.085514e+00 -1.724091e+00)	(-8.092897e-02 -2.600289e-03 9.308790e-04)
0.119224      	(2.299225e+01 -1.116729e+00 -1.735982e+00)	(2.307326e+01 -1.114143e+00 -1.736859e+00)	(-8.100906e-02 -2.585729e-03 8.768222e-04)
0.119894      	(2.369350e+01 -1.036621e+00 -1.827267e+00)	(2.377458e+01 -1.034052e+00 -1.828089e+00)	(-8.108545e-02 -2.568883e-03 8.223206e-04)
0.120564      	(2.305633e+01 -1.041407e+00 -1.735968e+00)	(2.313749e+01 -1.038856e+00 -1.736738e+00)	(-8.116790e-02 -2.550900e-03 7.709183e-04)
0.121235      	(2.327598e+01 -1.063252e+00 -1.811582e+00)	(2.335723e+01 -1.060722e+00 -1.812303e+00)	(-8.124926e-02 -2.530442e-03 7.212406e-04)
0.121906      	(2.368246e+01 -9.502959e-01 -1.879698e+00)	(2.376379e+01 -9.477918e-01 -1.880372e+00)	(-8.132867e-02 -2.504055e-03 6.738322e-04)
0.122578      	(2.296340e+01 -9.078240e-01 -1.857533e+00)	(2.304482e+01 -9.053479e-01 -1.858162e+00)	(-8.141463e-02 -2.476146e-03 6.291626e-04)
0.123249      	(2.306493e+01 -8.695304e-01 -1.943216e+00)	(2.314643e+01 -8.670850e-01 -1.943802e+00)	(-8.150038e-02 -2.445387e-03 5.853830e-04)
0.123922      	(2.286490e+01 -8.921753e-01 -1.800120e+00)	(2.294649e+01 -8.897627e-01 -1.800666e+00)	(-8.158690e-02 -2.412670e-03 5.456894e-04)
0.124595      	(2.296377e+01 -6.795788e-01 -1.964305e+00)	(2.304545e+01 -6.772014e-01 -1.964811e+00)	(-8.167457e-02 -2.377345e-03 5.067616e-04)
0.125268      	(2.297298e+01 -7.196664e-01 -1.909464e+00)	(2.305474e+01 -7.173248e-01 -1.909934e+00)	(-8.176334e-02 -2.341550e-03 4.708530e-04)
0.125941      	(2.284492e+01 -8.449575e-01 -1.975058e+00)	(2.292677e+01 -8.426542e-01 -1.975494e+00)	(-8.185393e-02 -2.303345e-03 4.358933e-04)
0.126614      	(2.288416e+01 -6.737807e-01 -2.025616e+00)	(2.296610e+01 -6.715182e-01 -2.026020e+00)	(-8.194644e-02 -2.262472e-03 4.043643e-04)