# Moment      
# CofR        : (0.000000e+00 0.000000e+00 0.000000e+00)
#
# Time        	(total_x total_y total_z)	(pressure_x pressure_y pressure_z)	(viscous_x viscous_y viscous_z)
1.2e-05       	(-1.085772e+03 2.749402e+02 -1.348938e+02)	(-1.085708e+03 2.749401e+02 -1.348940e+02)	(-6.318267e-02 1.444631e-04 1.728085e-04)
2.64002e-05   	(-2.911887e+01 -1.213980e+01 -3.580300e+01)	(-2.905586e+01 -1.214001e+01 -3.580321e+01)	(-6.301030e-02 2.049713e-04 2.124456e-04)
4.36804e-05   	(-1.292288e+01 -3.062213e+00 6.295355e-01)	(-1.286010e+01 -3.062426e+00 6.293172e-01)	(-6.278221e-02 2.134943e-04 2.182839e-04)
6.44165e-05   	(-7.053596e+00 -2.375521e-01 -2.366220e-01)	(-6.991057e+00 -2.377679e-01 -2.368431e-01)	(-6.253882e-02 2.157651e-04 2.210661e-04)
8.92998e-05   	(-4.905580e+00 7.385877e-02 -2.690582e-01)	(-4.843319e+00 7.364097e-02 -2.692812e-01)	(-6.226106e-02 2.178038e-04 2.230463e-04)
0.000119159   	(-3.564252e+00 4.041593e-02 -2.746344e-01)	(-3.502310e+00 4.019716e-02 -2.748586e-01)	(-6.194252e-02 2.187721e-04 2.241649e-04)
0.000154991   	(-2.727760e+00 3.084039e-02 -3.081959e-01)	(-2.666184e+00 3.062105e-02 -3.084210e-01)	(-6.157574e-02 2.193451e-04 2.250648e-04)
0.00019799    	(-2.178216e+00 1.315146e-01 -3.041100e-01)	(-2.117062e+00 1.312948e-01 -3.043358e-01)	(-6.115378e-02 2.198322e-04 2.258479e-04)
0.000249587   	(-1.809722e+00 9.609601e-02 -2.967811e-01)	(-1.749052e+00 9.587535e-02 -2.970076e-01)	(-6.067003e-02 2.206599e-04 2.265383e-04)
0.000311503   	(-1.554050e+00 1.339857e-01 -3.209003e-01)	(-1.493932e+00 1.337640e-01 -3.211278e-01)	(-6.011814e-02 2.217352e-04 2.274296e-04)
0.000385801   	(-1.374469e+00 1.477765e-01 -3.266009e-01)	(-1.314976e+00 1.475530e-01 -3.268295e-01)	(-5.949241e-02 2.234719e-04 2.285947e-04)
0.000474957   	(-1.239608e+00 1.038443e-01 -2.979731e-01)	(-1.180820e+00 1.036192e-01 -2.982033e-01)	(-5.878837e-02 2.251641e-04 2.302412e-04)
0.000581938   	(-1.134449e+00 8.528901e-02 -2.536557e-01)	(-1.076445e+00 8.506189e-02 -2.538886e-01)	(-5.800365e-02 2.271195e-04 2.329492e-04)
0.000710316   	(-1.053972e+00 8.266416e-02 -2.325937e-01)	(-9.968345e-01 8.243449e-02 -2.328305e-01)	(-5.713755e-02 2.296765e-04 2.368110e-04)
0.00086436    	(-9.898708e-01 9.895159e-02 -1.961074e-01)	(-9.336786e-01 9.871911e-02 -1.963488e-01)	(-5.619221e-02 2.324815e-04 2.414264e-04)
0.00104921    	(-9.372859e-01 9.374400e-02 -1.517836e-01)	(-8.821131e-01 9.350820e-02 -1.520300e-01)	(-5.517285e-02 2.358065e-04 2.464223e-04)
0.00127106    	(-8.909564e-01 1.118747e-01 -1.279781e-01)	(-8.368683e-01 1.116355e-01 -1.282306e-01)	(-5.408811e-02 2.392062e-04 2.525367e-04)
0.00153724    	(-8.485517e-01 1.175250e-01 -7.962731e-02)	(-7.956024e-01 1.172826e-01 -7.988747e-02)	(-5.294930e-02 2.423801e-04 2.601530e-04)
0.00185665    	(-8.087316e-01 1.140478e-01 -3.982697e-02)	(-7.569622e-01 1.138023e-01 -4.009633e-02)	(-5.176939e-02 2.455467e-04 2.693638e-04)
0.00223996    	(-7.721917e-01 1.078037e-01 -2.369635e-02)	(-7.216298e-01 1.075572e-01 -2.397659e-02)	(-5.056186e-02 2.464628e-04 2.802364e-04)
0.002689      	(-7.421906e-01 1.149841e-01 1.302615e-02)	(-6.928249e-01 1.147386e-01 1.273441e-02)	(-4.936573e-02 2.454596e-04 2.917381e-04)
0.00320387    	(-7.123190e-01 1.089160e-01 4.365880e-02)	(-6.641096e-01 1.086751e-01 4.335540e-02)	(-4.820946e-02 2.409226e-04 3.034027e-04)
0.00378475    	(-6.841556e-01 9.725000e-02 6.434576e-02)	(-6.370468e-01 9.701719e-02 6.403129e-02)	(-4.710886e-02 2.328086e-04 3.144702e-04)
0.00443207    	(-6.582478e-01 1.042195e-01 8.665122e-02)	(-6.121771e-01 1.039982e-01 8.632616e-02)	(-4.607074e-02 2.213538e-04 3.250647e-04)
0.00509534    	(-6.385416e-01 1.109804e-01 1.219777e-01)	(-5.933823e-01 1.107723e-01 1.216438e-01)	(-4.515926e-02 2.080800e-04 3.338695e-04)
0.00575905    	(-6.211448e-01 9.049033e-02 1.251085e-01)	(-5.767793e-01 9.029582e-02 1.247674e-01)	(-4.436544e-02 1.945096e-04 3.410900e-04)
0.0064232     	(-6.052966e-01 7.522340e-02 1.371771e-01)	(-5.616318e-01 7.504332e-02 1.368297e-01)	(-4.366482e-02 1.800856e-04 3.473860e-04)
0.0070878     	(-5.910891e-01 6.831336e-02 1.298250e-01)	(-5.480493e-01 6.814809e-02 1.294724e-01)	(-4.303978e-02 1.652705e-04 3.525900e-04)
0.00775329    	(-5.786658e-01 5.877839e-02 1.603166e-01)	(-5.361891e-01 5.862793e-02 1.599601e-01)	(-4.247668e-02 1.504652e-04 3.565280e-04)
0.00841968    	(-5.686222e-01 6.255621e-02 1.540290e-01)	(-5.266567e-01 6.241972e-02 1.536696e-01)	(-4.196552e-02 1.364888e-04 3.594277e-04)
0.00908696    	(-5.600120e-01 7.762257e-02 1.460225e-01)	(-5.185137e-01 7.749897e-02 1.456615e-01)	(-4.149827e-02 1.236050e-04 3.610500e-04)
0.00975604    	(-5.540422e-01 5.310797e-02 1.904937e-01)	(-5.129746e-01 5.299626e-02 1.901316e-01)	(-4.106765e-02 1.117132e-04 3.620527e-04)
0.0104265     	(-5.486292e-01 5.226172e-02 1.810396e-01)	(-5.079603e-01 5.216064e-02 1.806773e-01)	(-4.066888e-02 1.010835e-04 3.622849e-04)
0.0110988     	(-5.443300e-01 2.475877e-02 1.833065e-01)	(-5.040327e-01 2.466665e-02 1.829445e-01)	(-4.029729e-02 9.211360e-05 3.620035e-04)
0.0117728     	(-5.410638e-01 1.893951e-02 1.789432e-01)	(-5.011145e-01 1.885479e-02 1.785822e-01)	(-3.994929e-02 8.471223e-05 3.609502e-04)
0.0124488     	(-5.394710e-01 3.415142e-02 1.815337e-01)	(-4.998492e-01 3.407275e-02 1.811745e-01)	(-3.962174e-02 7.866648e-05 3.592724e-04)
0.0131266     	(-5.380688e-01 9.662687e-03 1.631950e-01)	(-4.987568e-01 9.589262e-03 1.628376e-01)	(-3.931198e-02 7.342510e-05 3.573866e-04)
0.0138063     	(-5.365097e-01 1.870505e-03 1.884724e-01)	(-4.974917e-01 1.801705e-03 1.881168e-01)	(-3.901797e-02 6.879966e-05 3.555422e-04)
0.0144878     	(-5.355672e-01 -8.021986e-03 1.775821e-01)	(-4.968293e-01 -8.086653e-03 1.772286e-01)	(-3.873797e-02 6.466690e-05 3.534984e-04)
0.0151708     	(-5.355251e-01 3.870060e-03 1.923624e-01)	(-4.970543e-01 3.809174e-03 1.920107e-01)	(-3.847075e-02 6.088577e-05 3.517675e-04)
0.0158556     	(-5.351353e-01 -1.098138e-02 1.866332e-01)	(-4.969204e-01 -1.103889e-02 1.862835e-01)	(-3.821488e-02 5.750916e-05 3.496967e-04)
0.0165414     	(-5.349233e-01 -3.285992e-02 1.877440e-01)	(-4.969535e-01 -3.291404e-02 1.873963e-01)	(-3.796974e-02 5.412111e-05 3.476300e-04)
0.0172287     	(-5.345213e-01 -3.644008e-02 1.870590e-01)	(-4.967871e-01 -3.649085e-02 1.867135e-01)	(-3.773427e-02 5.076996e-05 3.454950e-04)
0.0179169     	(-5.344863e-01 -3.951968e-02 1.771815e-01)	(-4.969784e-01 -3.956735e-02 1.768383e-01)	(-3.750792e-02 4.766866e-05 3.431819e-04)
0.0186061     	(-5.341156e-01 -3.309659e-02 1.687577e-01)	(-4.968255e-01 -3.314125e-02 1.684173e-01)	(-3.729009e-02 4.465868e-05 3.404019e-04)
0.0192957     	(-5.340838e-01 -4.177434e-02 1.815261e-01)	(-4.970035e-01 -4.181596e-02 1.811884e-01)	(-3.708032e-02 4.162128e-05 3.376649e-04)
0.0199859     	(-5.339351e-01 -4.439910e-02 1.969213e-01)	(-4.970570e-01 -4.443784e-02 1.965864e-01)	(-3.687805e-02 3.874135e-05 3.348540e-04)
0.0206765     	(-5.343421e-01 -6.232720e-02 1.776899e-01)	(-4.976592e-01 -6.236308e-02 1.773584e-01)	(-3.668290e-02 3.588727e-05 3.314987e-04)
0.0213677     	(-5.344769e-01 -7.192728e-02 1.618175e-01)	(-4.979825e-01 -7.196040e-02 1.614896e-01)	(-3.649449e-02 3.311729e-05 3.278955e-04)
0.0220588     	(-5.339749e-01 -5.910650e-02 1.862022e-01)	(-4.976623e-01 -5.913708e-02 1.858775e-01)	(-3.631255e-02 3.058086e-05 3.247080e-04)
0.0227499     	(-5.341048e-01 -5.494914e-02 1.929553e-01)	(-4.979680e-01 -5.497748e-02 1.926337e-01)	(-3.613679e-02 2.834020e-05 3.216256e-04)
0.0234386     	(-5.342237e-01 -8.872696e-02 1.631705e-01)	(-4.982562e-01 -8.875301e-02 1.628523e-01)	(-3.596754e-02 2.604694e-05 3.181941e-04)
0.0241244     	(-5.337477e-01 -7.492437e-02 1.640099e-01)	(-4.979432e-01 -7.494849e-02 1.636950e-01)	(-3.580449e-02 2.411477e-05 3.149168e-04)
0.0248073     	(-5.336825e-01 -9.450461e-02 1.782356e-01)	(-4.980353e-01 -9.452703e-02 1.779238e-01)	(-3.564717e-02 2.241268e-05 3.117923e-04)
0.0254873     	(-5.339331e-01 -7.880444e-02 1.742664e-01)	(-4.984377e-01 -7.882565e-02 1.739575e-01)	(-3.549538e-02 2.120718e-05 3.088388e-04)
0.0261646     	(-5.343317e-01 -9.731246e-02 1.779763e-01)	(-4.989830e-01 -9.733262e-02 1.776702e-01)	(-3.534872e-02 2.015119e-05 3.061212e-04)
0.0268394     	(-5.335860e-01 -9.085141e-02 1.644986e-01)	(-4.983793e-01 -9.087094e-02 1.641951e-01)	(-3.520674e-02 1.952387e-05 3.034920e-04)
0.027512      	(-5.333944e-01 -1.067782e-01 1.696804e-01)	(-4.983252e-01 -1.067972e-01 1.693794e-01)	(-3.506918e-02 1.895612e-05 3.009992e-04)
0.0281817     	(-5.336742e-01 -8.426919e-02 1.411350e-01)	(-4.987382e-01 -8.428797e-02 1.408367e-01)	(-3.493595e-02 1.877170e-05 2.983240e-04)
0.0288496     	(-5.329490e-01 -1.010779e-01 1.673135e-01)	(-4.981423e-01 -1.010968e-01 1.670173e-01)	(-3.480667e-02 1.885902e-05 2.961489e-04)
0.0295153     	(-5.326798e-01 -1.206891e-01 1.576235e-01)	(-4.979985e-01 -1.207081e-01 1.573294e-01)	(-3.468121e-02 1.899532e-05 2.941611e-04)
0.0301791     	(-5.318235e-01 -1.121341e-01 1.684787e-01)	(-4.972642e-01 -1.121535e-01 1.681862e-01)	(-3.455929e-02 1.939245e-05 2.925709e-04)
0.0308406     	(-5.327705e-01 -1.167231e-01 1.460268e-01)	(-4.983297e-01 -1.167432e-01 1.457359e-01)	(-3.444083e-02 2.002463e-05 2.909069e-04)
0.0315008     	(-5.320082e-01 -1.335430e-01 1.338049e-01)	(-4.976827e-01 -1.335637e-01 1.335155e-01)	(-3.432551e-02 2.073045e-05 2.893646e-04)
0.0321592     	(-5.317486e-01 -1.471726e-01 1.516503e-01)	(-4.975353e-01 -1.471941e-01 1.513621e-01)	(-3.421332e-02 2.145757e-05 2.882165e-04)
0.0328163     	(-5.310481e-01 -1.095749e-01 1.415624e-01)	(-4.969441e-01 -1.095975e-01 1.412753e-01)	(-3.410398e-02 2.258468e-05 2.871771e-04)
0.033472      	(-5.306876e-01 -1.186874e-01 1.482322e-01)	(-4.966902e-01 -1.187112e-01 1.479458e-01)	(-3.399743e-02 2.377976e-05 2.863374e-04)
0.0341264     	(-5.300576e-01 -1.515837e-01 1.231655e-01)	(-4.961641e-01 -1.516085e-01 1.228801e-01)	(-3.389353e-02 2.483806e-05 2.853855e-04)
0.0347794     	(-5.286699e-01 -1.364138e-01 1.271943e-01)	(-4.948777e-01 -1.364399e-01 1.269097e-01)	(-3.379219e-02 2.602967e-05 2.846310e-04)
0.0354316     	(-5.290632e-01 -1.536167e-01 1.422986e-01)	(-4.953700e-01 -1.536438e-01 1.420144e-01)	(-3.369319e-02 2.713798e-05 2.841660e-04)
0.0360829     	(-5.284445e-01 -1.614583e-01 1.220531e-01)	(-4.948480e-01 -1.614865e-01 1.217694e-01)	(-3.359643e-02 2.821175e-05 2.837339e-04)
0.0367333     	(-5.276520e-01 -1.662293e-01 9.647750e-02)	(-4.941501e-01 -1.662587e-01 9.619418e-02)	(-3.350185e-02 2.935589e-05 2.833240e-04)
0.0373828     	(-5.268563e-01 -1.407072e-01 1.195283e-01)	(-4.934469e-01 -1.407380e-01 1.192450e-01)	(-3.340942e-02 3.074877e-05 2.832785e-04)
0.0380315     	(-5.256699e-01 -1.523050e-01 1.221298e-01)	(-4.923509e-01 -1.523369e-01 1.218464e-01)	(-3.331903e-02 3.198764e-05 2.834223e-04)
0.0386797     	(-5.250015e-01 -1.509617e-01 1.285571e-01)	(-4.917709e-01 -1.509950e-01 1.282734e-01)	(-3.323051e-02 3.328451e-05 2.837471e-04)
0.0393275     	(-5.246518e-01 -1.835080e-01 9.876715e-02)	(-4.915079e-01 -1.835425e-01 9.848325e-02)	(-3.314389e-02 3.441022e-05 2.839006e-04)
0.0399749     	(-5.237786e-01 -1.831257e-01 7.907505e-02)	(-4.907195e-01 -1.831613e-01 7.879112e-02)	(-3.305907e-02 3.555857e-05 2.839295e-04)
0.0406218     	(-5.226199e-01 -1.641064e-01 8.409309e-02)	(-4.896439e-01 -1.641432e-01 8.380903e-02)	(-3.297598e-02 3.681819e-05 2.840615e-04)
0.0412683     	(-5.214295e-01 -1.593851e-01 8.847682e-02)	(-4.885350e-01 -1.594233e-01 8.819249e-02)	(-3.289457e-02 3.819237e-05 2.843263e-04)
0.0419148     	(-5.207166e-01 -1.951744e-01 9.562981e-02)	(-4.879018e-01 -1.952136e-01 9.534505e-02)	(-3.281479e-02 3.924317e-05 2.847626e-04)
0.0425608     	(-5.199415e-01 -1.752984e-01 7.977299e-02)	(-4.872049e-01 -1.753388e-01 7.948795e-02)	(-3.273664e-02 4.047051e-05 2.850361e-04)
0.0432068     	(-5.188366e-01 -1.983415e-01 6.917627e-02)	(-4.861766e-01 -1.983830e-01 6.889090e-02)	(-3.265999e-02 4.151987e-05 2.853692e-04)
0.0438525     	(-5.179025e-01 -2.099745e-01 9.270195e-02)	(-4.853177e-01 -2.100169e-01 9.241589e-02)	(-3.258487e-02 4.243711e-05 2.860536e-04)
0.0444981     	(-5.164923e-01 -1.622612e-01 7.075219e-02)	(-4.839811e-01 -1.623050e-01 7.046544e-02)	(-3.251120e-02 4.376222e-05 2.867449e-04)
0.0451437     	(-5.159197e-01 -1.694195e-01 5.148553e-02)	(-4.834808e-01 -1.694645e-01 5.119815e-02)	(-3.243893e-02 4.505111e-05 2.873783e-04)
0.0457893     	(-5.147631e-01 -1.911949e-01 4.974453e-02)	(-4.823950e-01 -1.912409e-01 4.945642e-02)	(-3.236804e-02 4.605746e-05 2.881104e-04)
0.0464349     	(-5.145146e-01 -2.025311e-01 2.270121e-02)	(-4.822161e-01 -2.025781e-01 2.241246e-02)	(-3.229851e-02 4.691905e-05 2.887534e-04)
0.0470805     	(-5.138027e-01 -2.104446e-01 2.180265e-02)	(-4.815724e-01 -2.104923e-01 2.151315e-02)	(-3.223035e-02 4.764865e-05 2.894994e-04)
0.0477261     	(-5.116666e-01 -1.871460e-01 7.104330e-02)	(-4.795030e-01 -1.871946e-01 7.075243e-02)	(-3.216358e-02 4.856640e-05 2.908673e-04)
0.0483717     	(-5.103414e-01 -1.817082e-01 5.114577e-02)	(-4.782433e-01 -1.817577e-01 5.085363e-02)	(-3.209812e-02 4.948851e-05 2.921364e-04)
0.0490173     	(-5.092911e-01 -2.091683e-01 3.379921e-02)	(-4.772572e-01 -2.092184e-01 3.350588e-02)	(-3.203396e-02 5.009570e-05 2.933295e-04)
0.0496629     	(-5.087589e-01 -1.923132e-01 2.592599e-02)	(-4.767878e-01 -1.923641e-01 2.563146e-02)	(-3.197105e-02 5.085845e-05 2.945234e-04)
0.0503086     	(-5.080526e-01 -2.118534e-01 6.839878e-03)	(-4.761432e-01 -2.119048e-01 6.544261e-03)	(-3.190937e-02 5.137210e-05 2.956168e-04)
0.0509542     	(-5.064086e-01 -1.945180e-01 1.512573e-02)	(-4.745597e-01 -1.945700e-01 1.482884e-02)	(-3.184896e-02 5.196809e-05 2.968921e-04)
0.0515998     	(-5.054445e-01 -2.034053e-01 1.956193e-02)	(-4.736547e-01 -2.034577e-01 1.926353e-02)	(-3.178976e-02 5.248795e-05 2.984020e-04)
0.0522458     	(-5.048765e-01 -1.909986e-01 6.118808e-03)	(-4.731448e-01 -1.910517e-01 5.818895e-03)	(-3.173173e-02 5.303162e-05 2.999132e-04)
0.0528919     	(-5.039108e-01 -2.275602e-01 3.875558e-03)	(-4.722359e-01 -2.276133e-01 3.574006e-03)	(-3.167492e-02 5.309212e-05 3.015523e-04)
0.0535379     	(-5.022567e-01 -2.157614e-01 -1.420530e-03)	(-4.706374e-01 -2.158146e-01 -1.723868e-03)	(-3.161931e-02 5.315293e-05 3.033377e-04)
0.054184      	(-5.016265e-01 -2.042593e-01 -3.687481e-02)	(-4.700616e-01 -2.043126e-01 -3.717968e-02)	(-3.156485e-02 5.325823e-05 3.048710e-04)
0.05483       	(-5.002841e-01 -1.891665e-01 6.640264e-03)	(-4.687725e-01 -1.892200e-01 6.333357e-03)	(-3.151155e-02 5.350054e-05 3.069070e-04)
0.0554761     	(-4.993650e-01 -2.102067e-01 -4.126083e-02)	(-4.679056e-01 -2.102601e-01 -4.156951e-02)	(-3.145942e-02 5.341963e-05 3.086809e-04)
0.0561217     	(-4.986644e-01 -2.201735e-01 -5.064857e-02)	(-4.672560e-01 -2.202267e-01 -5.095906e-02)	(-3.140845e-02 5.314615e-05 3.104830e-04)
0.0567673     	(-4.977916e-01 -1.875233e-01 -6.455545e-02)	(-4.664330e-01 -1.875764e-01 -6.486781e-02)	(-3.135856e-02 5.308782e-05 3.123583e-04)
0.0574129     	(-4.971015e-01 -2.052265e-01 -2.928876e-02)	(-4.657917e-01 -2.052793e-01 -2.960334e-02)	(-3.130973e-02 5.277786e-05 3.145792e-04)
0.0580585     	(-4.958450e-01 -2.261580e-01 -2.661097e-02)	(-4.645831e-01 -2.262101e-01 -2.692790e-02)	(-3.126199e-02 5.208260e-05 3.169296e-04)
0.0587037     	(-4.944745e-01 -1.722364e-01 -5.636639e-02)	(-4.632592e-01 -1.722882e-01 -5.668553e-02)	(-3.121534e-02 5.179736e-05 3.191444e-04)
0.0593488     	(-4.937191e-01 -1.946875e-01 -6.275484e-02)	(-4.625494e-01 -1.947387e-01 -6.307628e-02)	(-3.116970e-02 5.119180e-05 3.214417e-04)
0.0599936     	(-4.934376e-01 -1.952314e-01 -7.301114e-02)	(-4.623125e-01 -1.952819e-01 -7.333489e-02)	(-3.112506e-02 5.044607e-05 3.237491e-04)
0.0606383     	(-4.918499e-01 -2.066249e-01 -7.131976e-02)	(-4.607685e-01 -2.066743e-01 -7.164587e-02)	(-3.108142e-02 4.940272e-05 3.261101e-04)
0.0612826     	(-4.912247e-01 -2.000772e-01 -8.674288e-02)	(-4.601859e-01 -2.001256e-01 -8.707127e-02)	(-3.103877e-02 4.836909e-05 3.283899e-04)
0.0619264     	(-4.900060e-01 -1.676729e-01 -6.740570e-02)	(-4.590089e-01 -1.677205e-01 -6.773667e-02)	(-3.099712e-02 4.755623e-05 3.309672e-04)
0.0625702     	(-4.888992e-01 -1.827223e-01 -8.247264e-02)	(-4.579428e-01 -1.827688e-01 -8.280615e-02)	(-3.095638e-02 4.647323e-05 3.335088e-04)
0.0632136     	(-4.887378e-01 -1.914933e-01 -1.239777e-01)	(-4.578213e-01 -1.915384e-01 -1.243134e-01)	(-3.091656e-02 4.513016e-05 3.357296e-04)
0.0638566     	(-4.874948e-01 -1.757268e-01 -1.381589e-01)	(-4.566171e-01 -1.757706e-01 -1.384969e-01)	(-3.087768e-02 4.379735e-05 3.379885e-04)
0.0644991     	(-4.859988e-01 -1.712375e-01 -1.056418e-01)	(-4.551591e-01 -1.712799e-01 -1.059825e-01)	(-3.083967e-02 4.235185e-05 3.406204e-04)
0.0651416     	(-4.849369e-01 -1.922455e-01 -6.400706e-02)	(-4.541344e-01 -1.922861e-01 -6.435074e-02)	(-3.080244e-02 4.055682e-05 3.436750e-04)
0.0657837     	(-4.847368e-01 -1.736347e-01 -9.623828e-02)	(-4.539707e-01 -1.736736e-01 -9.658477e-02)	(-3.076606e-02 3.885742e-05 3.464970e-04)
0.0664253     	(-4.841871e-01 -1.897211e-01 -1.491749e-01)	(-4.534566e-01 -1.897581e-01 -1.495238e-01)	(-3.073051e-02 3.695596e-05 3.488938e-04)
0.0670665     	(-4.830884e-01 -1.636488e-01 -1.202945e-01)	(-4.523927e-01 -1.636839e-01 -1.206460e-01)	(-3.069569e-02 3.510405e-05 3.515600e-04)
0.0677073     	(-4.817833e-01 -1.717201e-01 -1.129204e-01)	(-4.511217e-01 -1.717532e-01 -1.132749e-01)	(-3.066159e-02 3.308218e-05 3.544095e-04)
0.0683476     	(-4.807697e-01 -1.599981e-01 -1.299558e-01)	(-4.501415e-01 -1.600291e-01 -1.303130e-01)	(-3.062820e-02 3.101428e-05 3.571854e-04)
0.0689879     	(-4.797595e-01 -1.375484e-01 -1.535272e-01)	(-4.491640e-01 -1.375775e-01 -1.538870e-01)	(-3.059552e-02 2.908333e-05 3.598480e-04)
0.0696278     	(-4.785766e-01 -1.343365e-01 -1.565847e-01)	(-4.480131e-01 -1.343635e-01 -1.569472e-01)	(-3.056348e-02 2.707527e-05 3.625333e-04)
0.0702672     	(-4.773782e-01 -1.805938e-01 -1.229739e-01)	(-4.468461e-01 -1.806183e-01 -1.233395e-01)	(-3.053203e-02 2.449046e-05 3.656054e-04)
0.0709066     	(-4.773384e-01 -1.568354e-01 -1.417760e-01)	(-4.468372e-01 -1.568574e-01 -1.421446e-01)	(-3.050112e-02 2.207194e-05 3.686322e-04)
0.0715456     	(-4.768964e-01 -1.356239e-01 -1.613020e-01)	(-4.464257e-01 -1.356437e-01 -1.616735e-01)	(-3.047077e-02 1.974987e-05 3.715059e-04)
0.0721846     	(-4.753327e-01 -1.265568e-01 -1.529302e-01)	(-4.448918e-01 -1.265741e-01 -1.533047e-01)	(-3.044092e-02 1.728027e-05 3.744801e-04)
0.0728236     	(-4.743804e-01 -1.332037e-01 -1.714430e-01)	(-4.439689e-01 -1.332183e-01 -1.718204e-01)	(-3.041153e-02 1.457951e-05 3.774071e-04)
0.0734626     	(-4.728163e-01 -1.363238e-01 -1.654968e-01)	(-4.424337e-01 -1.363354e-01 -1.658773e-01)	(-3.038260e-02 1.162773e-05 3.804646e-04)
0.0741011     	(-4.727179e-01 -1.169836e-01 -1.936973e-01)	(-4.423638e-01 -1.169924e-01 -1.940807e-01)	(-3.035409e-02 8.757511e-06 3.833370e-04)
0.0747397     	(-4.708946e-01 -1.134419e-01 -1.732233e-01)	(-4.405686e-01 -1.134476e-01 -1.736098e-01)	(-3.032595e-02 5.680111e-06 3.864347e-04)
0.0753782     	(-4.698555e-01 -1.362335e-01 -1.683464e-01)	(-4.395574e-01 -1.362357e-01 -1.687360e-01)	(-3.029817e-02 2.252891e-06 3.895734e-04)
0.0760172     	(-4.691416e-01 -1.029490e-01 -1.646953e-01)	(-4.388709e-01 -1.029481e-01 -1.650881e-01)	(-3.027069e-02 -9.719828e-07 3.928269e-04)
0.0766562     	(-4.689676e-01 -8.681467e-02 -1.568928e-01)	(-4.387241e-01 -8.681050e-02 -1.572890e-01)	(-3.024347e-02 -4.176048e-06 3.961738e-04)
0.0772952     	(-4.672445e-01 -1.113707e-01 -1.827097e-01)	(-4.370279e-01 -1.113628e-01 -1.831090e-01)	(-3.021656e-02 -7.873652e-06 3.992914e-04)
0.0779346     	(-4.668187e-01 -8.777598e-02 -1.964393e-01)	(-4.366288e-01 -8.776440e-02 -1.968416e-01)	(-3.018985e-02 -1.157360e-05 4.022956e-04)
0.0785741     	(-4.660433e-01 -1.165931e-01 -1.927169e-01)	(-4.358799e-01 -1.165774e-01 -1.931223e-01)	(-3.016336e-02 -1.567335e-05 4.053348e-04)
0.079214      	(-4.644647e-01 -8.624957e-02 -1.816372e-01)	(-4.343277e-01 -8.622988e-02 -1.820457e-01)	(-3.013705e-02 -1.969259e-05 4.084274e-04)
0.0798538     	(-4.634253e-01 -7.589326e-02 -1.835488e-01)	(-4.333144e-01 -7.586947e-02 -1.839604e-01)	(-3.011093e-02 -2.378667e-05 4.115729e-04)
0.0804942     	(-4.621880e-01 -7.631895e-02 -1.837744e-01)	(-4.321031e-01 -7.629089e-02 -1.841890e-01)	(-3.008495e-02 -2.806103e-05 4.146618e-04)
0.0811349     	(-4.621131e-01 -6.437032e-02 -2.122219e-01)	(-4.320540e-01 -6.433795e-02 -2.126394e-01)	(-3.005907e-02 -3.237018e-05 4.174515e-04)
0.0817762     	(-4.607481e-01 -4.888519e-02 -2.305938e-01)	(-4.307148e-01 -4.884846e-02 -2.310138e-01)	(-3.003328e-02 -3.673049e-05 4.199873e-04)
0.0824178     	(-4.596646e-01 -4.515255e-02 -2.115333e-01)	(-4.296570e-01 -4.511134e-02 -2.119559e-01)	(-3.000763e-02 -4.121192e-05 4.226256e-04)
0.0830599     	(-4.588538e-01 -4.876407e-02 -1.946476e-01)	(-4.288718e-01 -4.871816e-02 -1.950731e-01)	(-2.998207e-02 -4.591363e-05 4.254584e-04)
0.0837025     	(-4.570702e-01 -5.007390e-02 -2.019413e-01)	(-4.271135e-01 -5.002308e-02 -2.023694e-01)	(-2.995664e-02 -5.082190e-05 4.281603e-04)
0.0843455     	(-4.559181e-01 -5.295340e-02 -2.019602e-01)	(-4.259869e-01 -5.289735e-02 -2.023909e-01)	(-2.993121e-02 -5.604782e-05 4.307485e-04)
0.084989      	(-4.563069e-01 -3.570830e-02 -2.179480e-01)	(-4.264011e-01 -3.564708e-02 -2.183812e-01)	(-2.990578e-02 -6.121343e-05 4.331802e-04)
0.0856329     	(-4.544956e-01 -4.684922e-02 -1.914613e-01)	(-4.246153e-01 -4.678257e-02 -1.918971e-01)	(-2.988039e-02 -6.665240e-05 4.357514e-04)
0.0862777     	(-4.535981e-01 -1.665158e-02 -2.180077e-01)	(-4.237431e-01 -1.657953e-02 -2.184458e-01)	(-2.985498e-02 -7.205668e-05 4.380870e-04)
0.086923      	(-4.522251e-01 -4.413466e-02 -2.017096e-01)	(-4.223955e-01 -4.405675e-02 -2.021503e-01)	(-2.982960e-02 -7.790707e-05 4.406719e-04)
0.0875688     	(-4.519268e-01 -5.781236e-03 -2.378847e-01)	(-4.221226e-01 -5.697614e-03 -2.383275e-01)	(-2.980419e-02 -8.362233e-05 4.428440e-04)
0.088215      	(-4.509988e-01 1.491803e-03 -2.177769e-01)	(-4.212200e-01 1.581204e-03 -2.182220e-01)	(-2.977873e-02 -8.940094e-05 4.450699e-04)
0.0888621     	(-4.492248e-01 -1.137975e-02 -2.298812e-01)	(-4.194715e-01 -1.128416e-02 -2.303284e-01)	(-2.975331e-02 -9.558973e-05 4.472551e-04)
0.0895096     	(-4.479282e-01 1.812032e-03 -2.194202e-01)	(-4.182004e-01 1.913985e-03 -2.198696e-01)	(-2.972789e-02 -1.019531e-04 4.493834e-04)
0.0901577     	(-4.480057e-01 3.346969e-02 -2.103776e-01)	(-4.183034e-01 3.357783e-02 -2.108292e-01)	(-2.970233e-02 -1.081372e-04 4.515480e-04)
0.0908066     	(-4.453462e-01 2.612712e-02 -1.937316e-01)	(-4.156695e-01 2.624181e-02 -1.941855e-01)	(-2.967676e-02 -1.146872e-04 4.538748e-04)
0.0914561     	(-4.454391e-01 1.446914e-02 -2.210738e-01)	(-4.157879e-01 1.459069e-02 -2.215296e-01)	(-2.965115e-02 -1.215472e-04 4.558279e-04)
0.092106      	(-4.445530e-01 -1.488758e-02 -2.122949e-01)	(-4.149274e-01 -1.475875e-02 -2.127525e-01)	(-2.962558e-02 -1.288255e-04 4.576546e-04)
0.0927568     	(-4.433741e-01 3.022192e-02 -2.613792e-01)	(-4.137742e-01 3.035789e-02 -2.618380e-01)	(-2.959995e-02 -1.359746e-04 4.588711e-04)
0.0934081     	(-4.421832e-01 5.419377e-02 -1.972239e-01)	(-4.126089e-01 5.433683e-02 -1.976844e-01)	(-2.957427e-02 -1.430660e-04 4.605256e-04)
0.0940598     	(-4.409336e-01 2.520598e-02 -2.128530e-01)	(-4.113849e-01 2.535699e-02 -2.133151e-01)	(-2.954867e-02 -1.510101e-04 4.621146e-04)
0.0947125     	(-4.396473e-01 2.810274e-02 -2.345342e-01)	(-4.101242e-01 2.826204e-02 -2.349974e-01)	(-2.952313e-02 -1.592987e-04 4.632033e-04)
0.0953657     	(-4.397780e-01 7.533838e-02 -2.079985e-01)	(-4.102805e-01 7.550560e-02 -2.084626e-01)	(-2.949752e-02 -1.672227e-04 4.641290e-04)
0.0960193     	(-4.371885e-01 7.306433e-02 -1.950719e-01)	(-4.077165e-01 7.323959e-02 -1.955368e-01)	(-2.947201e-02 -1.752582e-04 4.648642e-04)
0.0966739     	(-4.359880e-01 5.317757e-02 -2.061008e-01)	(-4.065415e-01 5.336137e-02 -2.065663e-01)	(-2.944655e-02 -1.837982e-04 4.654310e-04)
0.097329      	(-4.363115e-01 2.827508e-02 -2.304336e-01)	(-4.068903e-01 2.846805e-02 -2.308996e-01)	(-2.942120e-02 -1.929707e-04 4.659958e-04)
0.0979845     	(-4.350532e-01 1.014513e-01 -2.304959e-01)	(-4.056574e-01 1.016529e-01 -2.309621e-01)	(-2.939583e-02 -2.016238e-04 4.661857e-04)
0.0986405     	(-4.338311e-01 9.384205e-02 -2.029900e-01)	(-4.044606e-01 9.405268e-02 -2.034563e-01)	(-2.937050e-02 -2.106280e-04 4.663136e-04)
0.0992975     	(-4.325005e-01 5.808049e-02 -2.141649e-01)	(-4.031551e-01 5.830072e-02 -2.146318e-01)	(-2.934537e-02 -2.202285e-04 4.669452e-04)
0.0999549     	(-4.320798e-01 9.442238e-02 -2.301287e-01)	(-4.027595e-01 9.465216e-02 -2.305960e-01)	(-2.932029e-02 -2.297819e-04 4.673100e-04)
0.100613      	(-4.310925e-01 8.901980e-02 -1.918803e-01)	(-4.017972e-01 8.925944e-02 -1.923479e-01)	(-2.929530e-02 -2.396412e-04 4.675943e-04)
0.101271      	(-4.289533e-01 1.338174e-01 -2.116143e-01)	(-3.996828e-01 1.340668e-01 -2.120819e-01)	(-2.927047e-02 -2.493450e-04 4.675716e-04)
0.10193       	(-4.289750e-01 1.169517e-01 -2.146739e-01)	(-3.997292e-01 1.172114e-01 -2.151417e-01)	(-2.924581e-02 -2.596470e-04 4.677870e-04)
0.10259       	(-4.284440e-01 1.173060e-01 -2.165719e-01)	(-3.992227e-01 1.175763e-01 -2.170397e-01)	(-2.922133e-02 -2.702495e-04 4.678385e-04)
0.10325       	(-4.269224e-01 1.165857e-01 -2.161337e-01)	(-3.977253e-01 1.168668e-01 -2.166015e-01)	(-2.919707e-02 -2.810869e-04 4.677717e-04)
0.103911      	(-4.252225e-01 1.186368e-01 -1.977764e-01)	(-3.960493e-01 1.189293e-01 -1.982438e-01)	(-2.917316e-02 -2.924123e-04 4.674488e-04)
0.104572      	(-4.250366e-01 1.301351e-01 -1.947154e-01)	(-3.958871e-01 1.304393e-01 -1.951822e-01)	(-2.914947e-02 -3.042006e-04 4.668625e-04)
0.105234      	(-4.241435e-01 1.243608e-01 -1.948050e-01)	(-3.950174e-01 1.246771e-01 -1.952711e-01)	(-2.912607e-02 -3.162468e-04 4.660579e-04)
0.105896      	(-4.227667e-01 1.259431e-01 -1.831044e-01)	(-3.936637e-01 1.262717e-01 -1.835695e-01)	(-2.910297e-02 -3.285899e-04 4.650131e-04)
0.106559      	(-4.218751e-01 1.529408e-01 -2.082572e-01)	(-3.927948e-01 1.532819e-01 -2.087205e-01)	(-2.908025e-02 -3.411252e-04 4.633230e-04)
0.107222      	(-4.216346e-01 1.703505e-01 -1.872464e-01)	(-3.925766e-01 1.707045e-01 -1.877079e-01)	(-2.905801e-02 -3.540363e-04 4.615105e-04)
0.107886      	(-4.205163e-01 1.575767e-01 -1.747923e-01)	(-3.914801e-01 1.579442e-01 -1.752520e-01)	(-2.903614e-02 -3.675684e-04 4.597106e-04)
0.10855       	(-4.185397e-01 1.566458e-01 -1.800061e-01)	(-3.895249e-01 1.570272e-01 -1.804642e-01)	(-2.901478e-02 -3.814424e-04 4.580929e-04)
0.109214      	(-4.188659e-01 1.781737e-01 -1.732445e-01)	(-3.898721e-01 1.785694e-01 -1.737013e-01)	(-2.899387e-02 -3.957692e-04 4.567992e-04)
0.109879      	(-4.160506e-01 1.527253e-01 -1.737164e-01)	(-3.870771e-01 1.531365e-01 -1.741716e-01)	(-2.897342e-02 -4.112035e-04 4.551770e-04)
0.110544      	(-4.163335e-01 1.731019e-01 -1.744067e-01)	(-3.873799e-01 1.735289e-01 -1.748595e-01)	(-2.895364e-02 -4.270178e-04 4.527397e-04)
0.11121       	(-4.155857e-01 1.533601e-01 -1.806187e-01)	(-3.866512e-01 1.538032e-01 -1.810688e-01)	(-2.893450e-02 -4.430882e-04 4.500906e-04)
0.111876      	(-4.149315e-01 2.228637e-01 -1.571764e-01)	(-3.860153e-01 2.233225e-01 -1.576238e-01)	(-2.891614e-02 -4.587965e-04 4.473695e-04)
0.112542      	(-4.135068e-01 1.576286e-01 -1.562048e-01)	(-3.846082e-01 1.581040e-01 -1.566493e-01)	(-2.889862e-02 -4.754149e-04 4.445036e-04)
0.113209      	(-4.127957e-01 1.833570e-01 -1.520283e-01)	(-3.839138e-01 1.838491e-01 -1.524699e-01)	(-2.888186e-02 -4.920680e-04 4.415339e-04)
0.113875      	(-4.111909e-01 2.118505e-01 -1.584686e-01)	(-3.823249e-01 2.123590e-01 -1.589066e-01)	(-2.886602e-02 -5.085374e-04 4.380111e-04)
0.114543      	(-4.111348e-01 2.186844e-01 -1.534659e-01)	(-3.822837e-01 2.192097e-01 -1.539000e-01)	(-2.885111e-02 -5.252441e-04 4.340325e-04)
0.11521       	(-4.093000e-01 2.191401e-01 -1.353431e-01)	(-3.804631e-01 2.196823e-01 -1.357731e-01)	(-2.883696e-02 -5.422399e-04 4.299614e-04)
0.115878      	(-4.084580e-01 2.098596e-01 -1.530987e-01)	(-3.796341e-01 2.104196e-01 -1.535247e-01)	(-2.882387e-02 -5.599517e-04 4.260035e-04)
0.116546      	(-4.084665e-01 2.288642e-01 -1.537101e-01)	(-3.796547e-01 2.294415e-01 -1.541324e-01)	(-2.881185e-02 -5.772911e-04 4.222730e-04)
0.117215      	(-4.080310e-01 2.142317e-01 -1.147797e-01)	(-3.792301e-01 2.148267e-01 -1.151985e-01)	(-2.880091e-02 -5.949729e-04 4.187849e-04)
0.117884      	(-4.061916e-01 2.287272e-01 -1.159321e-01)	(-3.774006e-01 2.293403e-01 -1.163470e-01)	(-2.879096e-02 -6.130975e-04 4.148386e-04)
0.118554      	(-4.052746e-01 2.310838e-01 -1.165835e-01)	(-3.764926e-01 2.317156e-01 -1.169935e-01)	(-2.878193e-02 -6.318335e-04 4.100463e-04)
0.119224      	(-4.034762e-01 2.190747e-01 -1.296772e-01)	(-3.747022e-01 2.197258e-01 -1.300823e-01)	(-2.877393e-02 -6.510259e-04 4.050524e-04)
0.119894      	(-4.041003e-01 2.359876e-01 -9.628396e-02)	(-3.753333e-01 2.366577e-01 -9.668390e-02)	(-2.876699e-02 -6.700728e-04 3.999392e-04)
0.120564      	(-4.021777e-01 2.239954e-01 -1.051134e-01)	(-3.734164e-01 2.246852e-01 -1.055074e-01)	(-2.876131e-02 -6.897971e-04 3.940549e-04)
0.121235      	(-4.017526e-01 2.534723e-01 -1.243475e-01)	(-3.729958e-01 2.541824e-01 -1.247356e-01)	(-2.875681e-02 -7.101008e-04 3.880339e-04)
0.121906      	(-4.019162e-01 2.411797e-01 -9.141879e-02)	(-3.731629e-01 2.419110e-01 -9.180222e-02)	(-2.875332e-02 -7.312791e-04 3.834258e-04)
0.122578      	(-3.998229e-01 2.418194e-01 -7.570014e-02)	(-3.710717e-01 2.425720e-01 -7.607877e-02)	(-2.875117e-02 -7.525818e-04 3.786269e-04)
0.123249      	(-3.996031e-01 2.641111e-01 -8.521264e-02)	(-3.708526e-01 2.648853e-01 -8.558576e-02)	(-2.875048e-02 -7.742656e-04 3.731265e-04)
0.123922      	(-3.976025e-01 2.206258e-01 -9.668970e-02)	(-3.688516e-01 2.214225e-01 -9.705713e-02)	(-2.875095e-02 -7.966926e-04 3.674336e-04)
0.124595      	(-3.970634e-01 2.644050e-01 -5.289433e-02)	(-3.683104e-01 2.652242e-01 -5.325626e-02)	(-2.875300e-02 -8.192064e-04 3.619321e-04)